data_015_st4_fepse3_p7_10p0_0_15.10.2023_r3_2
_audit_creation_date               2023-10-16
_audit_creation_method
;
Olex2 1.5
(compiled 2023.08.24 svn.re1ec1418 for OlexSys, GUI svn.r6817)
;
_shelx_SHELXL_version_number       '2018/3'
_audit_contact_author_address      ?
_audit_contact_author_email        ?
_audit_contact_author_name         ''
_audit_contact_author_phone        ?
_publ_contact_author_id_orcid      ?
_publ_section_references
;
Dolomanov, O.V., Bourhis, L.J., Gildea, R.J, Howard, J.A.K. & Puschmann, H.
 (2009), J. Appl. Cryst. 42, 339-341.

Sheldrick, G.M. (2015). Acta Cryst. A71, 3-8.

Sheldrick, G.M. (2015). Acta Cryst. C71, 3-8.
;
_chemical_name_common              ?
_chemical_name_systematic          ?
_chemical_formula_moiety           'Fe2 P2 Se6'
_chemical_formula_sum              'Fe2 P2 Se6'
_chemical_formula_weight           647.40
_chemical_absolute_configuration   ?
_chemical_melting_point            ?
loop_
  _atom_type_symbol
  _atom_type_description
  _atom_type_scat_dispersion_real
  _atom_type_scat_dispersion_imag
  _atom_type_scat_source
 'P' 'P' 0.0503 0.0434 'International Tables Vol C Tables 4.2.6.8 and 6.1.1.4'
 'Fe' 'Fe' 0.2486 0.4181 'International Tables Vol C Tables 4.2.6.8 and 6.1.1.4'
 'Se' 'Se' 0.2928 1.1575 'International Tables Vol C Tables 4.2.6.8 and 6.1.1.4'

_shelx_space_group_comment
;
The symmetry employed for this shelxl refinement is uniquely defined
by the following loop, which should always be used as a source of
symmetry information in preference to the above space-group names.
They are only intended as comments.
;
_space_group_crystal_system        'trigonal'
_space_group_IT_number             146
_space_group_name_H-M_alt          'R 3'
_space_group_name_Hall             'R 3'
loop_
  _space_group_symop_operation_xyz
 'x, y, z'
 '-y, x-y, z'
 '-x+y, -x, z'
 'x+2/3, y+1/3, z+1/3'
 '-y+2/3, x-y+1/3, z+1/3'
 '-x+y+2/3, -x+1/3, z+1/3'
 'x+1/3, y+2/3, z+2/3'
 '-y+1/3, x-y+2/3, z+2/3'
 '-x+y+1/3, -x+2/3, z+2/3'

_cell_length_a                     6.0155(7)
_cell_length_b                     6.0155(7)
_cell_length_c                     15.34(6)
_cell_angle_alpha                  90
_cell_angle_beta                   90
_cell_angle_gamma                  120
_cell_volume                       480.8(18)
_cell_formula_units_Z              3
_cell_measurement_reflns_used      338
_cell_measurement_temperature      293(2)
_cell_measurement_theta_max        22.1240
_cell_measurement_theta_min        2.8290
_shelx_estimated_absorpt_T_max     0.770
_shelx_estimated_absorpt_T_min     0.202
_exptl_absorpt_coefficient_mu      13.815
_exptl_absorpt_correction_T_max    0.872
_exptl_absorpt_correction_T_min    0.862
_exptl_absorpt_correction_type     analytical
_exptl_absorpt_process_details
;
CrysAlisPro 1.171.42.90a (Rigaku Oxford Diffraction, 2023)
Analytical numeric absorption correction using a multifaceted crystal
model based on expressions derived by R.C. Clark & J.S. Reid.
(Clark, R. C. & Reid, J. S. (1995). Acta Cryst. A51, 887-897)
Empirical absorption correction using spherical harmonics,
implemented in SCALE3 ABSPACK scaling algorithm.
;
_exptl_absorpt_special_details     ?
_exptl_crystal_colour              ?
_exptl_crystal_density_diffrn      6.708
_exptl_crystal_density_meas        ?
_exptl_crystal_density_method      ?
_exptl_crystal_description         ?
_exptl_crystal_F_000               858
loop_
  _exptl_crystal_face_index_h
  _exptl_crystal_face_index_k
  _exptl_crystal_face_index_l
  _exptl_crystal_face_perp_dist
 0 0 -1 0.0100
 2 -3 0 0.0723
 -5 -1 0 0.0800
 0 0 1 0.0100
 -1 3 0 0.0683
 5 1 0 0.0800

_exptl_crystal_size_max            0.17
_exptl_crystal_size_mid            0.16
_exptl_crystal_size_min            0.02
_exptl_transmission_factor_max     ?
_exptl_transmission_factor_min     ?
_diffrn_reflns_av_R_equivalents    0.0178
_diffrn_reflns_av_unetI/netI       0.0216
_diffrn_reflns_Laue_measured_fraction_full  0.254
_diffrn_reflns_Laue_measured_fraction_max  0.188
_diffrn_reflns_limit_h_max         7
_diffrn_reflns_limit_h_min         -8
_diffrn_reflns_limit_k_max         8
_diffrn_reflns_limit_k_min         -8
_diffrn_reflns_limit_l_max         4
_diffrn_reflns_limit_l_min         -4
_diffrn_reflns_number              249
_diffrn_reflns_point_group_measured_fraction_full  0.234
_diffrn_reflns_point_group_measured_fraction_max  0.176
_diffrn_reflns_theta_full          16.950
_diffrn_reflns_theta_max           20.811
_diffrn_reflns_theta_min           4.633
_diffrn_ambient_temperature        293(2)
_diffrn_detector_area_resol_mean   13.3333
_diffrn_measured_fraction_theta_full  0.254
_diffrn_measured_fraction_theta_max  0.188
_diffrn_measurement_details
;
List of Runs (angles in degrees, time in seconds):

  # Type    Start    End  Width  t~exp~   \w     \q     \k     \f   Frames
--------------------------------------------------------------------------
  1  \f    -27.00  28.00   0.20    0.20 -90.00   0.00   0.00    --   275
  2  \f   -167.00-112.00   0.20    0.20-130.00   0.00   0.00    --   275
;
_diffrn_measurement_device         'abstract diffractometer'
_diffrn_measurement_device_type   
 'dectris-CrysAlisPro-abstract goniometer imported dectris images'
_diffrn_measurement_method         '\f scans'
_diffrn_radiation_type             ?
_diffrn_radiation_wavelength       0.4859
_diffrn_source                     ?
_reflns_Friedel_coverage           0.866
_reflns_Friedel_fraction_full      0.214
_reflns_Friedel_fraction_max       0.163
_reflns_number_gt                  118
_reflns_number_total               125
_reflns_special_details
;
 Reflections were merged by SHELXL according to the crystal
 class for the calculation of statistics and refinement.
 
 _reflns_Friedel_fraction is defined as the number of unique
 Friedel pairs measured divided by the number that would be
 possible theoretically, ignoring centric projections and
 systematic absences.
;
_reflns_threshold_expression       'I > 2\s(I)'
_computing_cell_refinement         'CrysAlisPro 1.171.42.90a (Rigaku OD, 2023)'
_computing_data_collection         'CrysAlisPro 1.171.42.90a (Rigaku OD, 2023)'
_computing_data_reduction          'CrysAlisPro 1.171.42.90a (Rigaku OD, 2023)'
_computing_molecular_graphics      'Olex2 1.5 (Dolomanov et al., 2009)'
_computing_publication_material    'Olex2 1.5 (Dolomanov et al., 2009)'
_computing_structure_refinement    'SHELXL 2018/3 (Sheldrick, 2015)'
_computing_structure_solution      'SHELXT 2018/2 (Sheldrick, 2018)'
_refine_diff_density_max           3.449
_refine_diff_density_min           -1.324
_refine_diff_density_rms           0.515
_refine_ls_abs_structure_details
;
 Flack x determined using 50 quotients [(I+)-(I-)]/[(I+)+(I-)]
 (Parsons, Flack and Wagner, Acta Cryst. B69 (2013) 249-259).
;
_refine_ls_abs_structure_Flack     0.2(5)
_refine_ls_extinction_coef         .
_refine_ls_extinction_method       none
_refine_ls_goodness_of_fit_ref     2.097
_refine_ls_hydrogen_treatment      undef
_refine_ls_matrix_type             full
_refine_ls_number_parameters       17
_refine_ls_number_reflns           125
_refine_ls_number_restraints       1
_refine_ls_R_factor_all            0.0934
_refine_ls_R_factor_gt             0.0895
_refine_ls_restrained_S_all        2.088
_refine_ls_shift/su_max            0.577
_refine_ls_shift/su_mean           0.034
_refine_ls_structure_factor_coef   Fsqd
_refine_ls_weighting_details      
 'w=1/[\s^2^(Fo^2^)+(0.1000P)^2^] where P=(Fo^2^+2Fc^2^)/3'
_refine_ls_weighting_scheme        calc
_refine_ls_wR_factor_gt            0.2177
_refine_ls_wR_factor_ref           0.2207
_refine_special_details            ?
_olex2_refinement_description
;
;
_atom_sites_solution_hydrogens     .
_atom_sites_solution_primary       dual
_atom_sites_solution_secondary     ?
loop_
  _atom_site_label
  _atom_site_type_symbol
  _atom_site_fract_x
  _atom_site_fract_y
  _atom_site_fract_z
  _atom_site_U_iso_or_equiv
  _atom_site_adp_type
  _atom_site_occupancy
  _atom_site_site_symmetry_order
  _atom_site_calc_flag
  _atom_site_refinement_flags_posn
  _atom_site_refinement_flags_adp
  _atom_site_refinement_flags_occupancy
  _atom_site_disorder_assembly
  _atom_site_disorder_group
 Fe01 Fe 0.333333 0.666667 0.516(5) -0.001(3) Uiso 1 3 d S . P . .
 Se02 Se 0.6239(12) 1.0053(10) 0.599(3) 0.0103(19) Uiso 1 1 d . . . . .
 Se03 Se 0.0016(16) 0.3536(18) 0.4291(15) 0.025(3) Uiso 1 1 d . . . . .
 P004 P 1.000000 1.000000 0.621(15) 0.014(6) Uiso 1 3 d S . P . .
 P005 P 0.000000 0.000000 0.474(13) 0.013(7) Uiso 1 3 d S . P . .
 Fe1 Fe 0.666667 1.333333 0.537(7) 0.049(10) Uiso 1 3 d S . P . .

_geom_special_details
;
 All esds (except the esd in the dihedral angle between two l.s. planes)
 are estimated using the full covariance matrix.  The cell esds are taken
 into account individually in the estimation of esds in distances, angles
 and torsion angles; correlations between esds in cell parameters are only
 used when they are defined by crystal symmetry.  An approximate (isotropic)
 treatment of cell esds is used for estimating esds involving l.s. planes.
;
loop_
  _geom_bond_atom_site_label_1
  _geom_bond_atom_site_label_2
  _geom_bond_distance
  _geom_bond_site_symmetry_2
  _geom_bond_publ_flag
 Fe01 Se02 2.29(5) 2_665 ?
 Fe01 Se02 2.29(5) . ?
 Fe01 Se02 2.29(5) 3_565 ?
 Fe01 Se03 2.36(5) 3_565 ?
 Fe01 Se03 2.36(5) . ?
 Fe01 Se03 2.36(5) 2_665 ?
 Se02 P004 2.30(4) . ?
 Se02 Fe1 2.09(6) . ?
 Se03 P005 2.23(7) . ?
 Se03 Fe1 2.56(8) 1_445 ?
 P004 P005 2.25(19) 1_665 ?

loop_
  _geom_angle_atom_site_label_1
  _geom_angle_atom_site_label_2
  _geom_angle_atom_site_label_3
  _geom_angle
  _geom_angle_site_symmetry_1
  _geom_angle_site_symmetry_3
  _geom_angle_publ_flag
 Se02 Fe01 Se02 92(3) 2_665 . ?
 Se02 Fe01 Se02 92(3) 2_665 3_565 ?
 Se02 Fe01 Se02 92(3) . 3_565 ?
 Se02 Fe01 Se03 82.4(7) 2_665 . ?
 Se02 Fe01 Se03 82.4(7) 3_565 2_665 ?
 Se02 Fe01 Se03 94.8(6) 3_565 . ?
 Se02 Fe01 Se03 171.3(5) . . ?
 Se02 Fe01 Se03 94.8(6) 2_665 3_565 ?
 Se02 Fe01 Se03 171.3(5) 2_665 2_665 ?
 Se02 Fe01 Se03 82.4(7) . 3_565 ?
 Se02 Fe01 Se03 171.3(5) 3_565 3_565 ?
 Se02 Fe01 Se03 94.8(6) . 2_665 ?
 Se03 Fe01 Se03 91(2) 3_565 . ?
 Se03 Fe01 Se03 91(2) . 2_665 ?
 Se03 Fe01 Se03 91(2) 3_565 2_665 ?
 Fe01 Se02 P004 113(3) . . ?
 Fe1 Se02 Fe01 106(4) . . ?
 Fe1 Se02 P004 115(3) . . ?
 Fe01 Se03 Fe1 90(2) . 1_445 ?
 P005 Se03 Fe01 101(4) . . ?
 P005 Se03 Fe1 97(4) . 1_445 ?
 Se02 P004 Se02 118(3) 3_675 . ?
 Se02 P004 Se02 118(3) 2_765 . ?
 Se02 P004 Se02 118(3) 3_675 2_765 ?
 P005 P004 Se02 82(6) 1_665 . ?
 P005 P004 Se02 82(6) 1_665 3_675 ?
 P005 P004 Se02 82(6) 1_665 2_765 ?
 Se03 P005 Se03 111(5) . 2 ?
 Se03 P005 Se03 111(5) . 3 ?
 Se03 P005 Se03 111(5) 2 3 ?
 Se03 P005 P004 108(5) . 1_445 ?
 Se03 P005 P004 108(5) 2 1_445 ?
 Se03 P005 P004 108(5) 3 1_445 ?
 Se02 Fe1 Se02 101(4) . 2_775 ?
 Se02 Fe1 Se02 101(4) . 3_575 ?
 Se02 Fe1 Se02 101(4) 2_775 3_575 ?
 Se02 Fe1 Se03 93.5(13) . 1_665 ?
 Se02 Fe1 Se03 164(4) 2_775 3_565 ?
 Se02 Fe1 Se03 93.5(13) 2_775 2_675 ?
 Se02 Fe1 Se03 81.7(13) 2_775 1_665 ?
 Se02 Fe1 Se03 164(4) . 2_675 ?
 Se02 Fe1 Se03 164(4) 3_575 1_665 ?
 Se02 Fe1 Se03 81.7(13) 3_575 2_675 ?
 Se02 Fe1 Se03 81.7(13) . 3_565 ?
 Se02 Fe1 Se03 93.5(13) 3_575 3_565 ?
 Se03 Fe1 Se03 83(3) 3_565 2_675 ?
 Se03 Fe1 Se03 83(3) 1_665 3_565 ?
 Se03 Fe1 Se03 83(3) 1_665 2_675 ?

_shelx_res_file
;
TITL 015_st4_fepse3_p7_10p0_0_15.10.2023_r3_2_a.res in R3
    015_st4_fepse3_p7_10p0_0_15.10.2023_r3_2.res
    created by SHELXL-2018/3 at 17:22:13 on 16-Oct-2023
REM Old TITL 015_ST4_FePSe3_P7_10p0_0_15 in R3
REM SHELXT solution in R3: R1 0.130, Rweak 0.028, Alpha 0.078
REM <I/s> 0.000 for 0 systematic absences, Orientation as input
REM Flack x = 0.172 ( 0.292 ) from 44 Parsons' quotients
REM Formula found by SHELXT: P2 Se7
CELL 0.4859 6.0155 6.0155 15.3415 90 90 120
ZERR 3 0.0007 0.0007 0.0589 0 0 0
LATT -3
SYMM -Y,+X-Y,+Z
SYMM +Y-X,-X,+Z
SFAC P Fe Se
DISP Fe 0.2486 0.4181 1179.2361
DISP P 0.0503 0.0434 135.1322
DISP Se 0.2928 1.1575 3251.7788
UNIT 6 6 18

L.S. 4 0 0
PLAN  5
SIZE 0.02 0.16 0.17
CONF
list 4
MORE -1
fmap 2 53
ACTA NOHKL
OMIT -8 7 0
OMIT -8 7 3
OMIT -8 8 -1
OMIT -8 8 2
OMIT -7 4 1
OMIT -7 7 1
OMIT -7 7 4
OMIT -7 8 0
OMIT -5 4 0
OMIT -4 5 0
OMIT -4 8 0
OMIT -2 4 0
OMIT -1 5 0
OMIT -1 8 0
OMIT 0 7 -4
OMIT 0 7 -1
OMIT 0 8 -2
OMIT 1 4 0
OMIT 2 2 0
OMIT 4 4 0
REM <olex2.extras>
REM <HklSrc "%.\\015_ST4_FePSe3_P7_10p0_0_15.10.2023_R3_2.hkl">
REM </olex2.extras>

WGHT    0.100000
FVAR       0.18814
FE01  2    0.333333    0.666667    0.516026    10.33333   -0.00100
SE02  3    0.623857    1.005296    0.598767    11.00000    0.01034
SE03  3    0.001624    0.353593    0.429102    11.00000    0.02516
P004  1    1.000000    1.000000    0.620754    10.33333    0.01380
P005  1    0.000000    0.000000    0.474092    10.33333    0.01266
FE1   2    0.666667    1.333333    0.536963    10.33333    0.04888
HKLF 4




REM  015_st4_fepse3_p7_10p0_0_15.10.2023_r3_2_a.res in R3
REM wR2 = 0.2207, GooF = S = 2.097, Restrained GooF = 2.088 for all data
REM R1 = 0.0895 for 118 Fo > 4sig(Fo) and 0.0934 for all 125 data
REM 17 parameters refined using 1 restraints

END

WGHT      0.1627     54.5319

REM Highest difference peak  3.449,  deepest hole -1.324,  1-sigma level  0.515
Q1    1  -0.3333  0.3333  0.3532  10.33333  0.05    3.45
Q2    1   0.6667  1.3333  0.6366  10.33333  0.05    2.35
Q3    1   0.3333  0.6667  0.4148  10.33333  0.05    2.28
Q4    1   0.0031  0.3297  0.5107  11.00000  0.05    1.64
Q5    1   0.3136  0.9929  0.6201  11.00000  0.05    1.43
;
_shelx_res_checksum                89016
_olex2_submission_special_instructions  'No special instructions were received'
_oxdiff_exptl_absorpt_empirical_details
;
Empirical correction (ABSPACK) includes:
- Absorption correction using spherical harmonics
- Frame scaling
;
